LAMMPS (7 Dec 2018)
# 3d Lennard-Jones melt



variable	xx equal 4.5
variable	yy equal 4.5
variable	zz equal 4.5

variable temperature equal 1.5

units		lj
atom_style	atomic

# lattice		fcc 0.0001
region		box block -${xx} ${xx} -${yy} ${yy} -${zz} ${zz}
region		box block -4.5 ${xx} -${yy} ${yy} -${zz} ${zz}
region		box block -4.5 4.5 -${yy} ${yy} -${zz} ${zz}
region		box block -4.5 4.5 -4.5 ${yy} -${zz} ${zz}
region		box block -4.5 4.5 -4.5 4.5 -${zz} ${zz}
region		box block -4.5 4.5 -4.5 4.5 -4.5 ${zz}
region		box block -4.5 4.5 -4.5 4.5 -4.5 4.5
create_box	1 box
Created orthogonal box = (-4.5 -4.5 -4.5) to (4.5 4.5 4.5)
  1 by 1 by 1 MPI processor grid
create_atoms	1 random  800 1234 box
Created 800 atoms
  Time spent = 0.000486 secs
mass		1 1.0



read_dump tj.xyz 50 x y z box no format xyz purge yes replace yes
  orthogonal box = (-4.5 -4.5 -4.5) to (4.5 4.5 4.5)
  800 atoms before read
  800 atoms in snapshot
  0 atoms purged
  800 atoms replaced
  0 atoms trimmed
  0 atoms added
  800 atoms after read

velocity	all create ${temperature} 87287 loop geom
velocity	all create 1.5 87287 loop geom
pair_style	lj/cut 2.5
pair_coeff	1 1 1.0 1.0 2.5
pair_modify     shift yes

neighbor	0.3 bin
neigh_modify	delay 0 every 20 check no

fix		1 all nvt temp ${temperature} ${temperature} 0.1
fix		1 all nvt temp 1.5 ${temperature} 0.1
fix		1 all nvt temp 1.5 1.5 0.1
dump dumper all  atom 100 tj.dump

thermo 500

run		100000
Neighbor list info ...
  update every 20 steps, delay 0 steps, check no
  max neighbors/atom: 2000, page size: 100000
  master list distance cutoff = 2.8
  ghost atom cutoff = 2.8
  binsize = 1.4, bins = 7 7 7
  1 neighbor lists, perpetual/occasional/extra = 1 0 0
  (1) pair lj/cut, perpetual
      attributes: half, newton on
      pair build: half/bin/atomonly/newton
      stencil: half/bin/3d/newton
      bin: standard
Per MPI rank memory allocation (min/avg/max) = 2.662 | 2.662 | 2.662 Mbytes
Step Temp E_pair E_mol TotEng Press 
      50          1.5    -4.042595            0   -1.7954075    22.323936 
     500    1.4674295   -4.2430507            0   -2.0446578    21.141927 
    1000    1.5164948   -4.1443755            0   -1.8724768    21.785856 
    1500    1.5252487   -4.2339608            0   -1.9489476    21.311296 
    2000     1.510049   -4.1948818            0   -1.9326397    21.495366 
    2500     1.467695   -4.2791127            0    -2.080322    21.023796 
    3000     1.575454   -4.2689115            0   -1.9086846    21.122231 
    3500    1.5152126    -4.229281            0   -1.9593031    21.284768 
    4000    1.5336701   -4.3254057            0   -2.0277762    20.878949 
    4500    1.5003936    -4.236235            0   -1.9884579    21.213195 
    5000     1.574535   -4.1618619            0   -1.8030117    21.655542 
    5500    1.5373373   -4.3524319            0   -2.0493084    20.691175 
    6000    1.4841366      -4.2863            0   -2.0628779    20.982249 
    6500    1.5697169    -4.266496            0   -1.9148638    21.185154 
    7000     1.467582   -4.2879267            0   -2.0893055    20.921749 
    7500    1.5820236   -4.3088485            0   -1.9387794    20.911688 
    8000    1.5644424   -4.1872696            0   -1.8435394    21.580183 
    8500    1.4499301   -4.2754948            0   -2.1033182    20.985058 
    9000    1.4805747   -4.2962987            0   -2.0782127    20.892574 
    9500    1.5291185   -4.3368021            0   -2.0459914    20.796412 
   10000    1.4973052   -4.3078146            0   -2.0646642    20.953604 
   10500    1.5396788   -4.2730344            0    -1.966403     21.12597 
   11000    1.5553692    -4.341386            0   -2.0112486    20.721645 
   11500    1.4992592    -4.484005            0   -2.2379273    19.903984 
   12000    1.5716071   -4.1828732            0   -1.8284093    21.620489 
   12500    1.5420207   -4.2426788            0   -1.9325391    21.293874 
   13000    1.5233448   -4.3216674            0   -2.0395064    20.786831 
   13500    1.6581426   -4.2971898            0    -1.813085    21.073888 
   14000    1.4423544   -4.3815108            0   -2.2206836    20.421025 
   14500    1.5015267   -4.2014481            0   -1.9519735    21.459806 
   15000    1.4884747   -4.3208717            0   -2.0909505    20.845461 
   15500    1.5134485   -4.2496208            0   -1.9822857    21.190684 
   16000    1.5118573   -4.2703622            0   -2.0054111    21.039335 
   16500    1.4955122   -4.2627411            0    -2.022277    21.112555 
   17000    1.5454469   -4.1690882            0   -1.8538156    21.699676 
   17500     1.505097   -4.3159074            0    -2.061084    20.835142 
   18000    1.5102688   -4.2933449            0   -2.0307734    20.961564 
   18500    1.5321427   -4.2789109            0   -1.9835697    21.060675 
   19000    1.4920086   -4.2792026            0   -2.0439872    20.971117 
   19500    1.5782217   -4.2679411            0   -1.9035677    21.130616 
   20000    1.5164468   -4.2366412            0   -1.9648143    21.273063 
   20500    1.4596799    -4.302934            0   -2.1161509    20.821537 
   21000    1.4556065   -4.2173163            0   -2.0366358      21.2881 
   21500    1.5452363   -4.2145355            0   -1.8995785    21.396517 
   22000    1.4390169   -4.3485131            0   -2.1926859    20.650077 
   22500    1.5196265   -4.3579912            0   -2.0814007    20.627282 
   23000    1.4658785    -4.337513            0   -2.1414438    20.688392 
   23500    1.5338908   -4.3289117            0   -2.0309515    20.790996 
   24000    1.5557441   -4.2994241            0   -1.9687251    21.014715 
   24500    1.5469296   -4.2629071            0   -1.9454133    21.196373 
   25000    1.5325285   -4.3414706            0   -2.0455513    20.683044 
   25500    1.4730337   -4.2804506            0   -2.0736619    20.985187 
   26000    1.5314881   -4.3869944            0   -2.0926339    20.461822 
   26500    1.4859444   -4.2765903            0   -2.0504598    20.978511 
   27000    1.5065191   -4.3061587            0   -2.0492048    20.897126 
   27500    1.4524095   -4.2758816            0   -2.0999906    20.942526 
   28000     1.538572   -4.2652674            0   -1.9602943    21.150453 
   28500    1.5822512   -4.2114332            0   -1.8410231    21.497726 
   29000    1.5057041   -4.3022731            0   -2.0465401    20.874333 
   29500    1.5051406   -4.1931489            0   -1.9382602    21.470537 
   30000     1.499738   -4.2238461            0   -1.9770511    21.303091 
   30500    1.4419942   -4.2306083            0   -2.0703208    21.251548 
   31000    1.5194407   -4.2394991            0    -1.963187    21.255503 
   31500    1.5112992   -4.3389659            0   -2.0748508    20.707635 
   32000    1.4691208   -4.2249089            0   -2.0239824    21.271767 
   32500    1.4966374   -4.3095362            0   -2.0673863    20.849054 
   33000    1.5954862   -4.1970919            0   -1.8068542    21.586816 
   33500    1.5330428   -4.3178558            0   -2.0211661    20.897291 
   34000    1.5258335   -4.2827953            0   -1.9969059    21.030419 
   34500    1.4840725   -4.3326637            0   -2.1093376    20.749074 
   35000    1.4584498   -4.3099914            0   -2.1250512     20.79882 
   35500    1.4867352   -4.2319913            0   -2.0046762    21.306528 
   36000    1.5174202   -4.2648667            0   -1.9915816    21.011666 
   36500    1.5352104   -4.1682995            0   -1.8683623    21.611175 
   37000     1.477003   -4.3821042            0   -2.1693691     20.41979 
   37500    1.4249934   -4.3235343            0   -2.1887161    20.710539 
   38000    1.4467532    -4.259449            0   -2.0920318    21.069937 
   38500    1.5250044   -4.2832912            0    -1.998644    21.012036 
   39000    1.4930177   -4.2178007            0   -1.9810735    21.309058 
   39500     1.489064   -4.3770882            0   -2.1462842    20.495835 
   40000     1.503474   -4.2627651            0    -2.010373    21.123233 
   40500    1.5127668     -4.27255            0   -2.0062362    21.083382 
   41000    1.4412517   -4.2819266            0   -2.1227514    20.963022 
   41500    1.5054597   -4.2507192            0   -1.9953524    21.142297 
   42000     1.524911   -4.2848767            0   -2.0003694    21.040599 
   42500    1.4369376   -4.2602485            0   -2.1075364    21.055505 
   43000    1.4486874   -4.2689722            0   -2.0986574    21.028087 
   43500    1.4886055   -4.3741351            0    -2.144018    20.482447 
   44000     1.618694   -4.2332159            0     -1.80821    21.385665 
   44500    1.5716894   -4.2654261            0   -1.9108389    21.244626 
   45000     1.488888   -4.2220074            0   -1.9914671    21.362853 
   45500    1.5534944   -4.2799373            0   -1.9526084    21.099581 
   46000    1.4658525   -4.4039163            0   -2.2078861    20.322321 
   46500    1.4820166   -4.2443053            0   -2.0240592    21.195381 
   47000    1.5574928   -4.2781855            0   -1.9448666    21.062408 
   47500    1.5405778   -4.2767115            0   -1.9687334    21.087808 
   48000    1.4608984   -4.2241894            0   -2.0355809    21.276688 
   48500    1.5000487   -4.2706432            0   -2.0233827    21.049808 
   49000    1.4790245   -4.1438033            0   -1.9280397    21.739206 
   49500    1.4442252   -4.2332178            0   -2.0695879    21.148471 
   50000    1.5247458    -4.154643            0   -1.8703832    21.721958 
   50500    1.4877727   -4.2887899            0   -2.0599203    20.927455 
   51000    1.5237626   -4.3459614            0   -2.0631746    20.684868 
   51500    1.4660526   -4.3864087            0   -2.1900787    20.431008 
   52000    1.5193855   -4.3498988            0   -2.0736694    20.663676 
   52500     1.458063   -4.1238619            0   -1.9395013    21.819272 
   53000    1.5348625   -4.3299133            0   -2.0304973    20.788465 
   53500    1.4799432   -4.2580774            0   -2.0409376    21.147626 
   54000    1.4746021   -4.2919601            0   -2.0828218    20.990534 
   54500     1.495019   -4.2232572            0   -1.9835319    21.318335 
   55000    1.4114733   -4.3248343            0   -2.2102709    20.677341 
   55500    1.5114394   -4.2472229            0   -1.9828978    21.171263 
   56000    1.5070672   -4.3322161            0    -2.074441    20.812877 
   56500    1.5113323   -4.2140665            0   -1.9499018    21.402848 
   57000    1.4078568   -4.2474108            0   -2.1382653    21.115707 
   57500    1.5283922   -4.2447142            0   -1.9549917     21.23394 
   58000     1.528541   -4.2440292            0   -1.9540836    21.230346 
   58500    1.5429126   -4.2288899            0    -1.917414    21.342816 
   59000     1.490015   -4.1546503            0   -1.9224216     21.64144 
   59500      1.44512   -4.2614044            0   -2.0964339     21.08206 
   60000     1.469438   -4.3279565            0   -2.1265546    20.730031 
   60500    1.5744888   -4.2605754            0   -1.9017943    21.249347 
   61000     1.437938   -4.2175558            0   -2.0633448    21.286344 
   61500    1.5161788   -4.3235183            0    -2.052093    20.729738 
   62000    1.5110032   -4.2985186            0    -2.034847    20.930639 
   62500    1.4644974   -4.2205227            0   -2.0265226    21.241382 
   63000     1.608344   -4.1597127            0   -1.7502123    21.741665 
   63500    1.5674889   -4.3851732            0   -2.0368788    20.474375 
   64000    1.5131603   -4.2817369            0   -2.0148336    20.976431 
   64500    1.5718411   -4.1839265            0    -1.829112    21.613251 
   65000    1.5615511   -4.4203752            0   -2.0809765    20.319998 
   65500    1.4504546   -4.2919382            0   -2.1189759    20.941934 
   66000    1.5301956   -4.2719159            0   -1.9794916    21.123162 
   66500    1.4137536   -4.2828995            0     -2.16492    20.921913 
   67000    1.4279933   -4.3393626            0   -2.2000501    20.690198 
   67500    1.4656229   -4.3515233            0   -2.1558369     20.55366 
   68000    1.5407864   -4.3765276            0   -2.0682369    20.510274 
   68500    1.5301983    -4.178352            0   -1.8859237    21.549214 
   69000    1.4595001   -4.1760792            0   -1.9895655    21.488467 
   69500    1.4993798   -4.2441323            0   -1.9978738    21.131966 
   70000    1.5195092   -4.1808879            0   -1.9044732    21.567682 
   70500    1.4398969   -4.3130652            0   -2.1559197    20.841041 
   71000    1.5261539   -4.2797001            0   -1.9933308    21.057668 
   71500    1.4630183   -4.2474706            0   -2.0556864    21.151099 
   72000    1.4800685   -4.2799826            0    -2.062655    21.041639 
   72500    1.4844296   -4.2924382            0   -2.0685771     20.95016 
   73000    1.5507064   -4.3527797            0   -2.0296277    20.644192 
   73500     1.473172   -4.2754107            0   -2.0684149    21.002324 
   74000    1.5548451   -4.1762331            0   -1.8468808    21.591534 
   74500     1.576125   -4.3112143            0    -1.949982    20.939645 
   75000    1.5029036   -4.1999828            0   -1.9484453    21.532533 
   75500    1.4693126   -4.2066196            0   -2.0054056    21.350134 
   76000    1.4985336   -4.2885157            0   -2.0435251    20.955059 
   76500    1.4770604   -4.3327589            0   -2.1199377    20.749006 
   77000    1.5411163   -4.2890325            0   -1.9802476     20.99174 
   77500    1.5228505   -4.4107393            0   -2.1293188    20.338988 
   78000    1.5348261   -4.3166633            0   -2.0173019    20.903729 
   78500    1.4390466   -4.2339085            0   -2.0780368    21.171762 
   79000    1.4283252   -4.2586388            0   -2.1188291    21.104878 
   79500    1.4860336   -4.2229942            0   -1.9967301    21.321403 
   80000    1.5336607   -4.3145632            0   -2.0169478    20.855725 
   80500    1.4874665   -4.1771052            0   -1.9486945    21.644546 
   81000     1.477344   -4.2281648            0   -2.0149188    21.258285 
   81500    1.5099456    -4.328153            0   -2.0660658    20.818756 
   82000    1.5120992    -4.168344            0   -1.9030303    21.543991 
   82500    1.4488193   -4.2625414            0    -2.092029    21.023774 
   83000    1.5716055   -4.2379882            0   -1.8835267    21.281436 
   83500    1.4650843   -4.3786854            0    -2.183806    20.470895 
   84000    1.4247865   -4.2401802            0   -2.1056719    21.178266 
   84500    1.4706412    -4.278852            0   -2.0756477    20.971666 
   85000    1.5053333    -4.290244            0   -2.0350666    20.933433 
   85500    1.5077689   -4.3345405            0   -2.0757142    20.734579 
   86000    1.5168943   -4.3118049            0   -2.0393076    20.854994 
   86500    1.4960119   -4.3917509            0   -2.1505381    20.461713 
   87000    1.5896121   -4.2859159            0   -1.9044783     21.10886 
   87500    1.4740644   -4.4066389            0   -2.1983062    20.281418 
   88000    1.4286914   -4.1973067            0   -2.0569483    21.443198 
   88500     1.472563   -4.3605146            0   -2.1544312    20.550282 
   89000    1.4665724   -4.1750799            0   -1.9779711    21.570089 
   89500    1.5346393   -4.2433722            0   -1.9442907     21.30433 
   90000    1.5270528   -4.3126549            0    -2.024939     20.90106 
   90500     1.424984   -4.3589072            0    -2.224103    20.500108 
   91000    1.5707628   -4.1786701            0   -1.8254711    21.658109 
   91500    1.5153945   -4.2939381            0   -2.0236878    21.003048 
   92000    1.4754707   -4.2673058            0   -2.0568663    21.071306 
   92500    1.4990139    -4.259856            0   -2.0141458    21.111199 
   93000    1.5006156   -4.2512362            0   -2.0031264    21.167524 
   93500     1.515687   -4.3694939            0   -2.0988054    20.484693 
   94000    1.4931046   -4.2659575            0   -2.0291001    21.078544 
   94500    1.4778636   -4.2224987            0   -2.0084743      21.3117 
   95000    1.5008996   -4.2518394            0   -2.0033042    21.168424 
   95500    1.4475228   -4.2272579            0   -2.0586878    21.236221 
   96000    1.5103947   -4.3517772            0   -2.0890172    20.625105 
   96500    1.4269963   -4.3030382            0   -2.1652194     20.79714 
   97000     1.510193   -4.3097477            0   -2.0472898    20.855096 
   97500    1.6030885   -4.2640769            0   -1.8624499    21.253698 
   98000    1.4599504   -4.2927451            0   -2.1055569    20.919877 
   98500    1.5365807   -4.1346944            0   -1.8327044    21.847545 
   99000    1.4754206   -4.2123898            0   -2.0020253    21.337792 
   99500    1.4711628   -4.2527013            0   -2.0487155    21.183701 
  100000    1.4996018   -4.2389079            0    -1.992317    21.246438 
  100050    1.4793081   -4.3139134            0   -2.0977249     20.82516 
Loop time of 58.7467 on 1 procs for 100000 steps with 800 atoms

Performance: 735360.492 tau/day, 1702.223 timesteps/s
97.4% CPU use with 1 MPI tasks x no OpenMP threads

MPI task timing breakdown:
Section |  min time  |  avg time  |  max time  |%varavg| %total
---------------------------------------------------------------
Pair    | 48.772     | 48.772     | 48.772     |   0.0 | 83.02
Neigh   | 6.6064     | 6.6064     | 6.6064     |   0.0 | 11.25
Comm    | 1.3222     | 1.3222     | 1.3222     |   0.0 |  2.25
Output  | 0.56744    | 0.56744    | 0.56744    |   0.0 |  0.97
Modify  | 1.2402     | 1.2402     | 1.2402     |   0.0 |  2.11
Other   |            | 0.2386     |            |       |  0.41

Nlocal:    800 ave 800 max 800 min
Histogram: 1 0 0 0 0 0 0 0 0 0
Nghost:    2609 ave 2609 max 2609 min
Histogram: 1 0 0 0 0 0 0 0 0 0
Neighs:    40131 ave 40131 max 40131 min
Histogram: 1 0 0 0 0 0 0 0 0 0

Total # of neighbors = 40131
Ave neighs/atom = 50.1638
Neighbor list builds = 5000
Dangerous builds not checked
# rerun tj.xyz dump x y z box no format xyz
Total wall time: 0:00:58
